[
    {
        "casNumber": "7732-18-5",
        "name": "Water",
        "formula": "H20",
        "molarMass": 44.009,
        "image": "https://upload.wikimedia.org/wikipedia/commons/f/fa/Water-3D-balls-A.png",
        "interactiveModel": "https://chemapps.stolaf.edu/jmol/jmol.php?model=O",
        "appearance": "Colorless liquid",
        "density": 0.9970474,
        "meltingPoint": 0.00,
        "boilingPoint": 100.00,
        "shape": "Bent",
        "dipoleMoment": 1.8546,
        "heatCapacity": 75.385,
        "molarEntropy": 69.95,
        "enthalpyOfFormation": -258.83
    },
    {
        "casNumber": "124-38-9",
        "name": "Carbon dioxide",
        "formula": "CO2",
        "molarMass": 44.009,
        "image": "https://upload.wikimedia.org/wikipedia/commons/a/a0/Carbon_dioxide_3D_ball.png",
        "interactiveModel": "https://chemapps.stolaf.edu/jmol/jmol.php?model=O%3DC%3DO",
        "appearance": "Colorless gas",
        "density": 1562,
        "shape": "Linear",
        "heatCapacity": 37.135,
        "molarEntropy": 214,
        "enthalpyOfFormation": -393.5
    },
    {
        "casNumber": "7647-14-5",
        "name": "Sodium chloride",
        "formula": "NaCl",
        "molarMass": 58.443,
        "image": "https://upload.wikimedia.org/wikipedia/commons/d/dd/NaCl_bonds.svg",
        "interactiveModel": "https://chemapps.stolaf.edu/jmol/jmol.php?model=%5BNa%2B%5D.%5BCl-%5D",
        "appearance": "Colorless cubic crystals",
        "meltingPoint": 800.7,
        "boilingPoint": 1465.00,
        "heatCapacity": 50.5,
        "molarEntropy": 72.10,
        "enthalpyOfFormation": -411.120
    },
    {
        "casNumber": "6132-02-1",
        "name": "Sodium carbonate",
        "formula": "Na2CO3",
        "molarMass": 286.1416,
        "image": "https://upload.wikimedia.org/wikipedia/commons/0/03/Uhli%C4%8Ditan_sodn%C3%BD.JPG",
        "interactiveModel": "https://chemapps.stolaf.edu/jmol/jmol.php?model=%5BNa%2B%5D.%5BNa%2B%5D.%5BO-%5DC%28%5BO-%5D%29%3DO",
        "appearance": "White solid",
        "meltingPoint": 34,
        "heatCapacity": 112.3,
        "molarEntropy": 125,
        "enthalpyOfFormation": -1130.7
    },
    {
        "casNumber": "7664-41-7",
        "name": "Ammonia",
        "formula": "Na2CO3",
        "molarMass": 17.031,
        "image": "https://upload.wikimedia.org/wikipedia/commons/0/05/Ammonia-3D-balls-A.png",
        "interactiveModel": "https://chemapps.stolaf.edu/jmol/jmol.php?model=N",
        "appearance": "Colorless gas",
        "meltingPoint": -77.73,
        "boilingPoint": -33.34,
        "shape": "Trigonal pyramid",
        "heatCapacity": 112.3,
        "molarEntropy": 193,
        "enthalpyOfFormation": -46
    }
]